LAMMPS data file.

    119 atoms
    307 bonds
      0 angles
      0 dihedrals
      0 impropers
      1 atom types
    307 bond types
      0 angle types
      0 dihedral types
      0 improper types
  -6.420586   6.420586 xlo xhi
  -6.420586   6.420586 ylo yhi
  -0.100000   0.100000 zlo zhi

Masses # ['atom_id', 'mass']

1 1.0

Atoms # ['atomID', 'moleculeID', 'atomType', 'charge', 'x', 'y', 'z']

     12      1      1   0.000000  -4.792220  -5.773361   0.000000
    108      1      1   0.000000  -3.453305  -6.123924   0.000000
     78      1      1   0.000000  -2.587258  -5.727128   0.000000
     93      1      1   0.000000  -0.776736  -6.116129   0.000000
     64      1      1   0.000000   1.229894  -5.922635   0.000000
     33      1      1   0.000000   2.675185  -5.390471   0.000000
     51      1      1   0.000000   3.936245  -5.537207   0.000000
     97      1      1   0.000000   5.090957  -5.368352   0.000000
     29      1      1   0.000000   6.066285  -6.255061   0.000000
     53      1      1   0.000000  -6.070499  -5.138512   0.000000
     23      1      1   0.000000  -3.627873  -4.896988   0.000000
     76      1      1   0.000000  -2.395063  -4.583355   0.000000
     34      1      1   0.000000  -1.353094  -5.243565   0.000000
      7      1      1   0.000000   0.117489  -5.244513   0.000000
    100      1      1   0.000000   1.574418  -5.044256   0.000000
     66      1      1   0.000000   2.250823  -4.288510   0.000000
     37      1      1   0.000000   3.392400  -4.364393   0.000000
     38      1      1   0.000000   4.671511  -4.330560   0.000000
    112      1      1   0.000000   5.737203  -4.635787   0.000000
     46      1      1   0.000000  -6.258570  -3.860001   0.000000
     14      1      1   0.000000  -4.951138  -4.237725   0.000000
     24      1      1   0.000000  -3.167990  -3.577802   0.000000
     20      1      1   0.000000  -1.790524  -3.320775   0.000000
     18      1      1   0.000000  -0.518173  -4.024967   0.000000
     21      1      1   0.000000   1.044007  -4.029171   0.000000
    109      1      1   0.000000   2.544472  -3.269640   0.000000
    115      1      1   0.000000  -5.479136  -3.111730   0.000000
     27      1      1   0.000000  -4.302635  -2.856207   0.000000
     92      1      1   0.000000  -0.530604  -2.695838   0.000000
     28      1      1   0.000000   0.678341  -2.613094   0.000000
    120      1      1   0.000000   1.685458  -3.055560   0.000000
    101      1      1   0.000000   1.926648  -2.172147   0.000000
     49      1      1   0.000000   3.059690  -2.194230   0.000000
      8      1      1   0.000000   3.873369  -3.162299   0.000000
     67      1      1   0.000000  -6.276079  -2.522449   0.000000
     26      1      1   0.000000   5.369369  -3.085924   0.000000
    104      1      1   0.000000  -6.338780  -1.464324   0.000000
     25      1      1   0.000000  -5.234530  -1.857878   0.000000
    117      1      1   0.000000  -3.995897  -1.717508   0.000000
     56      1      1   0.000000  -2.952894  -2.211461   0.000000
     45      1      1   0.000000  -1.533082  -2.050386   0.000000
     19      1      1   0.000000  -0.257071  -1.452022   0.000000
     15      1      1   0.000000   1.190577  -1.276004   0.000000
     79      1      1   0.000000   2.415956  -1.221911   0.000000
     60      1      1   0.000000   3.583728  -1.128583   0.000000
     82      1      1   0.000000   4.557374  -1.986209   0.000000
    107      1      1   0.000000   5.567644  -1.782356   0.000000
     52      1      1   0.000000  -5.782352  -0.456187   0.000000
     59      1      1   0.000000  -4.315999  -0.529578   0.000000
    111      1      1   0.000000  -3.379854  -1.145213   0.000000
     74      1      1   0.000000  -2.436260  -1.090539   0.000000
     68      1      1   0.000000  -3.180272  -0.106202   0.000000
    116      1      1   0.000000  -1.386681  -0.952580   0.000000
     75      1      1   0.000000  -0.762571  -0.175914   0.000000
    105      1      1   0.000000   0.266307  -0.362842   0.000000
     81      1      1   0.000000   2.582308  -0.188843   0.000000
     87      1      1   0.000000   4.492242  -0.407435   0.000000
     50      1      1   0.000000   5.725651  -0.677930   0.000000
    103      1      1   0.000000  -5.653505   1.033151   0.000000
    106      1      1   0.000000  -4.999814   0.390390   0.000000
     70      1      1   0.000000  -3.950788   0.615093   0.000000
     47      1      1   0.000000  -1.981268   0.030160   0.000000
     39      1      1   0.000000  -0.941692   0.913435   0.000000
    118      1      1   0.000000   0.190272   0.610388   0.000000
     13      1      1   0.000000   1.347964   0.140625   0.000000
     48      1      1   0.000000   2.708240   1.091566   0.000000
     88      1      1   0.000000   3.650413   0.156790   0.000000
     54      1      1   0.000000   4.401196   1.137042   0.000000
    114      1      1   0.000000   5.145481   0.350359   0.000000
     43      1      1   0.000000   6.257224   0.468015   0.000000
     83      1      1   0.000000  -6.015155   1.933934   0.000000
    110      1      1   0.000000  -4.826165   1.334646   0.000000
    113      1      1   0.000000  -5.055560   2.156459   0.000000
      2      1      1   0.000000  -3.805484   1.939898   0.000000
      5      1      1   0.000000  -2.504862   1.152783   0.000000
     99      1      1   0.000000   0.589783   1.404452   0.000000
     63      1      1   0.000000   1.641001   1.429126   0.000000
     57      1      1   0.000000   5.628335   1.539343   0.000000
     73      1      1   0.000000  -5.593131   3.051483   0.000000
      9      1      1   0.000000  -4.368682   3.213764   0.000000
     65      1      1   0.000000  -2.570990   2.487580   0.000000
     31      1      1   0.000000  -1.501545   2.096617   0.000000
     58      1      1   0.000000  -0.465014   2.977856   0.000000
     30      1      1   0.000000   0.893961   2.548922   0.000000
     40      1      1   0.000000   2.255291   2.454421   0.000000
      3      1      1   0.000000   3.547282   2.295560   0.000000
     62      1      1   0.000000   4.811760   2.307845   0.000000
     11      1      1   0.000000   5.959237   2.979083   0.000000
     96      1      1   0.000000  -6.313623   4.008784   0.000000
     16      1      1   0.000000  -2.986507   3.686302   0.000000
     41      1      1   0.000000  -1.676357   3.479580   0.000000
     71      1      1   0.000000  -0.635000   4.199092   0.000000
     77      1      1   0.000000   0.437922   3.837805   0.000000
      6      1      1   0.000000   1.680321   3.890503   0.000000
     44      1      1   0.000000   3.019344   3.552675   0.000000
     10      1      1   0.000000   4.397142   3.518842   0.000000
     90      1      1   0.000000   5.533214   4.201134   0.000000
     69      1      1   0.000000  -6.414142   4.999249   0.000000
     22      1      1   0.000000  -5.284355   4.338580   0.000000
     61      1      1   0.000000  -4.041062   4.498660   0.000000
     94      1      1   0.000000  -3.212735   4.937741   0.000000
      1      1      1   0.000000  -2.021828   4.820271   0.000000
     42      1      1   0.000000   0.395322   5.053135   0.000000
     80      1      1   0.000000   1.541753   5.273435   0.000000
      4      1      1   0.000000   2.768324   5.084805   0.000000
    102      1      1   0.000000   3.756396   4.511140   0.000000
    119      1      1   0.000000   4.682983   4.730859   0.000000
     17      1      1   0.000000  -5.553910   5.766277   0.000000
     32      1      1   0.000000  -4.039867   5.756265   0.000000
     86      1      1   0.000000  -2.875473   5.942449   0.000000
     35      1      1   0.000000  -1.770476   6.279276   0.000000
     36      1      1   0.000000  -0.765289   5.474793   0.000000
     84      1      1   0.000000   0.189420   6.227552   0.000000
     91      1      1   0.000000   1.182231   6.112079   0.000000
     89      1      1   0.000000   2.225097   6.218081   0.000000
     95      1      1   0.000000   3.991172   5.395601   0.000000
     85      1      1   0.000000   3.369338   6.288533   0.000000
     55      1      1   0.000000   4.738459   6.243593   0.000000
     72      1      1   0.000000   5.544641   5.418263   0.000000

Bond Coeffs # ['bondID', 'bondCoeff', 'd']

      1   0.686717   1.206733
      2   0.759566   1.147406
      3   0.759566   1.147406
      4   0.618323   1.271722
      5   0.696430   1.198288
      6   1.017946   0.991146
      7   0.696430   1.198288
      8   1.137763   0.937506
      9   0.551874   1.346109
     10   0.656436   1.234252
     11   0.689918   1.203930
     12   0.570789   1.323616
     13   0.820503   1.103976
     14   0.498184   1.416789
     15   0.627170   1.262721
     16   0.649327   1.240990
     17   1.289673   0.880562
     18   0.655922   1.234735
     19   0.540234   1.360533
     20   0.592367   1.299285
     21   0.722929   1.176121
     22   0.722929   1.176121
     23   0.413530   1.555057
     24   0.568431   1.326359
     25   0.589173   1.302803
     26   1.007331   0.996355
     27   1.030566   0.985059
     28   1.123283   0.943529
     29   1.414367   0.840851
     30   0.633148   1.256746
     31   0.641292   1.248740
     32   1.189834   0.916762
     33   0.617976   1.272079
     34   0.531790   1.371292
     35   0.717373   1.180667
     36   0.531790   1.371292
     37   0.733153   1.167892
     38   0.733153   1.167892
     39   0.527019   1.377486
     40   0.826404   1.100028
     41   0.656313   1.234367
     42   0.620423   1.269569
     43   0.649629   1.240702
     44   0.643168   1.246918
     45   0.914446   1.045733
     46   0.719051   1.179289
     47   0.739379   1.162964
     48   0.676204   1.216077
     49   0.739379   1.162964
     50   0.449826   1.491000
     51   0.499534   1.414873
     52   0.743244   1.159937
     53   0.698296   1.196686
     54   0.973685   1.013423
     55   0.917388   1.044055
     56   0.628874   1.261009
     57   0.628874   1.261009
     58   0.996511   1.001749
     59   0.598351   1.292772
     60   0.636374   1.253556
     61   0.599622   1.291401
     62   0.761067   1.146274
     63   0.683535   1.209538
     64   0.798119   1.119351
     65   0.643536   1.246561
     66   0.467511   1.462527
     67   0.611253   1.279056
     68   0.611253   1.279056
     69   0.470219   1.458310
     70   1.061345   0.970670
     71   0.521702   1.384486
     72   1.373630   0.853228
     73   0.856584   1.080476
     74   0.657213   1.233522
     75   0.625369   1.264538
     76   0.752825   1.152532
     77   1.025748   0.987370
     78   1.025748   0.987370
     79   0.603284   1.287476
     80   0.537014   1.364606
     81   0.716737   1.181191
     82   0.456230   1.480498
     83   0.638067   1.251892
     84   0.743565   1.159686
     85   0.782762   1.130278
     86   0.552431   1.345429
     87   0.703256   1.192458
     88   0.616562   1.273538
     89   0.503463   1.409342
     90   0.569417   1.325210
     91   0.710167   1.186642
     92   1.194185   0.915091
     93   0.482828   1.439142
     94   0.482828   1.439142
     95   0.657760   1.233009
     96   0.655540   1.235095
     97   1.070430   0.966542
     98   0.428175   1.528232
     99   0.419563   1.543836
    100   1.070430   0.966542
    101   0.492221   1.425345
    102   0.750839   1.154055
    103   0.913323   1.046376
    104   0.999028   1.000486
    105   0.644874   1.245267
    106   0.762350   1.145309
    107   1.048017   0.976823
    108   1.048017   0.976823
    109   0.562993   1.332750
    110   0.795298   1.121334
    111   0.608129   1.282337
    112   0.713096   1.184202
    113   0.699994   1.195233
    114   0.537907   1.363472
    115   0.796576   1.120435
    116   0.735665   1.165896
    117   0.703447   1.192297
    118   0.565846   1.329385
    119   0.462339   1.470684
    120   0.655102   1.235508
    121   0.462339   1.470684
    122   0.702513   1.193089
    123   0.700761   1.194579
    124   0.621277   1.268695
    125   0.625301   1.264607
    126   0.559892   1.336435
    127   0.583804   1.308779
    128   1.102731   0.952281
    129   0.610343   1.280009
    130   0.889423   1.060341
    131   0.914468   1.045721
    132   0.600147   1.290836
    133   0.600147   1.290836
    134   0.490911   1.427246
    135   0.446928   1.495826
    136   0.766062   1.142531
    137   0.512363   1.397048
    138   0.647986   1.242274
    139   1.201084   0.912459
    140   1.047902   0.976876
    141   0.558679   1.337886
    142   0.572325   1.321840
    143   0.572325   1.321840
    144   0.491129   1.426928
    145   0.553061   1.344663
    146   0.432681   1.520253
    147   0.733763   1.167406
    148   0.910079   1.048239
    149   0.735403   1.166104
    150   0.646692   1.243516
    151   0.535129   1.367007
    152   0.743410   1.159808
    153   0.439722   1.508033
    154   0.439722   1.508033
    155   0.788927   1.125853
    156   0.788927   1.125853
    157   0.728650   1.171495
    158   0.572703   1.321403
    159   0.568733   1.326006
    160   0.468670   1.460718
    161   0.751258   1.153733
    162   0.604118   1.286587
    163   0.904431   1.051507
    164   0.684820   1.208403
    165   0.818503   1.105325
    166   0.818503   1.105325
    167   0.487759   1.431850
    168   0.719177   1.179185
    169   0.451163   1.488789
    170   0.624173   1.265749
    171   0.492417   1.425061
    172   0.727668   1.172286
    173   0.972123   1.014237
    174   1.000993   0.999504
    175   0.668134   1.223400
    176   0.780219   1.132118
    177   0.668134   1.223400
    178   0.547492   1.351484
    179   0.547492   1.351484
    180   1.119370   0.945177
    181   0.752413   1.152847
    182   1.532224   0.807865
    183   0.532020   1.370996
    184   0.532020   1.370996
    185   1.532224   0.807865
    186   0.464340   1.467513
    187   0.522956   1.382825
    188   0.522956   1.382825
    189   0.646560   1.243643
    190   0.517678   1.389857
    191   0.738481   1.163671
    192   0.846774   1.086717
    193   0.846774   1.086717
    194   0.429341   1.526155
    195   0.472866   1.454223
    196   0.524354   1.380982
    197   0.540254   1.360507
    198   0.758047   1.148555
    199   0.844591   1.088120
    200   0.757971   1.148613
    201   0.651707   1.238722
    202   1.275941   0.885288
    203   0.676538   1.215777
    204   0.583650   1.308953
    205   0.751003   1.153929
    206   0.537376   1.364146
    207   0.681016   1.211773
    208   0.458280   1.477184
    209   0.573775   1.320168
    210   0.573775   1.320168
    211   0.974943   1.012769
    212   0.974943   1.012769
    213   0.470869   1.457303
    214   0.803391   1.115672
    215   0.597050   1.294180
    216   0.473714   1.452921
    217   0.522697   1.383169
    218   0.530790   1.372583
    219   0.892340   1.058607
    220   0.595180   1.296211
    221   0.763968   1.144096
    222   0.875373   1.068817
    223   0.709110   1.187527
    224   0.692688   1.201520
    225   0.515484   1.392812
    226   0.542403   1.357809
    227   0.542403   1.357809
    228   0.628160   1.261726
    229   0.564331   1.331169
    230   0.612754   1.277488
    231   0.749360   1.155193
    232   0.680679   1.212074
    233   0.564331   1.331169
    234   0.843807   1.088625
    235   0.843807   1.088625
    236   0.457528   1.478397
    237   0.590152   1.301721
    238   0.655819   1.234833
    239   0.852637   1.082973
    240   0.462404   1.470583
    241   0.856049   1.080814
    242   0.610773   1.279559
    243   0.728237   1.171827
    244   0.621677   1.268287
    245   0.793456   1.122635
    246   0.534991   1.367184
    247   0.514630   1.393967
    248   0.536168   1.365683
    249   1.265588   0.888902
    250   0.509300   1.401242
    251   0.890326   1.059804
    252   0.510314   1.399850
    253   0.771269   1.138668
    254   0.890028   1.059981
    255   0.598817   1.292269
    256   0.654584   1.235997
    257   0.621277   1.268695
    258   0.475360   1.450403
    259   0.717153   1.180848
    260   0.450719   1.489523
    261   0.735631   1.165923
    262   0.632282   1.257606
    263   0.539941   1.360902
    264   0.893353   1.058007
    265   0.778650   1.133258
    266   0.754174   1.151501
    267   0.603635   1.287101
    268   1.084864   0.960091
    269   0.664682   1.226572
    270   0.565631   1.329638
    271   0.565631   1.329638
    272   1.049364   0.976196
    273   0.629052   1.260831
    274   0.484406   1.436797
    275   0.640644   1.249371
    276   0.458222   1.477277
    277   0.813760   1.108541
    278   0.897698   1.055443
    279   0.528720   1.375267
    280   0.445663   1.497948
    281   0.868848   1.072823
    282   0.757121   1.149258
    283   0.757121   1.149258
    284   0.596531   1.294743
    285   1.101949   0.952619
    286   1.008954   0.995553
    287   0.593997   1.297502
    288   1.086384   0.959419
    289   0.612687   1.277558
    290   0.703408   1.192330
    291   0.843008   1.089141
    292   0.843008   1.089141
    293   0.548266   1.350530
    294   0.941442   1.030631
    295   0.409765   1.562185
    296   0.651107   1.239292
    297   0.655475   1.235157
    298   0.526462   1.378214
    299   0.798119   1.119351
    300   0.760889   1.146408
    301   0.581707   1.311136
    302   0.734284   1.166992
    303   0.800119   1.117951
    304   0.482781   1.439213
    305   1.192477   0.915746
    306   0.815254   1.107525
    307   0.626661   1.263233

Bonds # ['ID', 'type', 'atom1', 'atom2']

         1         1        68        47
         2         2       112        46
         3         3        46       112
         4         4        16        94
         5         5        90        69
         6         6       115        67
         7         7        69        90
         8         8        61        94
         9         9        63        30
        10        10        56        74
        11        11       115        27
        12        12        73        22
        13        13        75        39
        14        14         1        36
        15        15        87        50
        16        16        80         4
        17        17       103       110
        18        18        88        54
        19        19         8        82
        20        20        15       105
        21        21        11        96
        22        22        96        11
        23        23        30         6
        24        24        16        41
        25        25        64         7
        26        26       116        75
        27        27        83       113
        28        28        64       100
        29        29       117       111
        30        30         4        89
        31        31        93         7
        32        32       103       106
        33        33        23        76
        34        34        29        55
        35        35        50       114
        36        36        55        29
        37        37        78        35
        38        38        35        78
        39        39         5        31
        40        40        28       120
        41        41        66        21
        42        42        33        51
        43        43        54        62
        44        44        58        77
        45        45        93        34
        46        46        27       117
        47        47        51        85
        48        48        77        42
        49        49        85        51
        50        50        28        19
        51        51        38         8
        52        52        60        87
        53        53        94         1
        54        54        87        88
        55        55       113        73
        56        56        83        57
        57        57        57        83
        58        58        90       119
        59        59        51        37
        60        60        22        61
        61        61        54        57
        62        62        59       106
        63        63        74        47
        64        64        48        63
        65        65        25       117
        66        66        21        28
        67        67        29        72
        68        68        72        29
        69        69        19        15
        70        70       103        83
        71        71        41         1
        72        72       110       113
        73        73        46       115
        74        74        76        34
        75        75         3        62
        76        76        69        17
        77        77       107       104
        78        78       104       107
        79        79        35        36
        80        80        30        40
        81        81        10       102
        82        82         1        35
        83        83        33        37
        84        84       101        15
        85        85        95        55
        86        86         4        85
        87        87       109        49
        88        88        92        19
        89        89        45        19
        90        90        10        90
        91        91       110         2
        92        92       102        95
        93        93        46        26
        94        94        26        46
        95        95        58        71
        96        96        19       116
        97        97       108        86
        98        98         7        21
        99        99        12        14
       100       100        86       108
       101       101        15        13
       102       102       117        56
       103       103        79        81
       104       104        87       114
       105       105        10       119
       106       106       100        21
       107       107        69        72
       108       108        72        69
       109       109        70         2
       110       110        57        62
       111       111        71        36
       112       112        99        30
       113       113        63        40
       114       114         3        44
       115       115        59       111
       116       116        80        89
       117       117        92        45
       118       118        62        11
       119       119        29        17
       120       120        67        25
       121       121        17        29
       122       122       105        13
       123       123        83        73
       124       124       113         2
       125       125        49         8
       126       126         5        65
       127       127        69        22
       128       128       102       119
       129       129        62        10
       130       130        66       109
       131       131        75       105
       132       132        73        11
       133       133        11        73
       134       134        12        53
       135       135        27        56
       136       136         4       102
       137       137        23        24
       138       138        43        57
       139       139        80        91
       140       140        97       112
       141       141        40        44
       142       142        67        26
       143       143        26        67
       144       144        38        26
       145       145        24        27
       146       146         2         5
       147       147        42        80
       148       148        91        89
       149       149        49        79
       150       150        77         6
       151       151        26        82
       152       152        78        76
       153       153        12        17
       154       154        17        12
       155       155       108        32
       156       156        32       108
       157       157        79        60
       158       158        13        63
       159       159         9        61
       160       160         9        16
       161       161        55        72
       162       162        81        48
       163       163        99        63
       164       164        19       105
       165       165       104        50
       166       166        50       104
       167       167        28        15
       168       168        32        86
       169       169        16         1
       170       170        41        71
       171       171        58        30
       172       172       104        25
       173       173       100        66
       174       174        84        91
       175       175        52        43
       176       176        71        77
       177       177        43        52
       178       178        52        50
       179       179        50        52
       180       180       111        74
       181       181        52       106
       182       182        64        91
       183       183         7        84
       184       184        84         7
       185       185        91        64
       186       186        48         3
       187       187        34        35
       188       188        35        34
       189       189        14       115
       190       190         6        80
       191       191        94        32
       192       192        84        93
       193       193        93        84
       194       194        14        27
       195       195        20        18
       196       196         6        44
       197       197        31        58
       198       198        56       111
       199       199        95        85
       200       200       116        47
       201       201        47         5
       202       202       109       120
       203       203        36        84
       204       204        39        31
       205       205        33       100
       206       206        47        39
       207       207        92        28
       208       208        34        18
       209       209        29        53
       210       210        53        29
       211       211        96        90
       212       212        90        96
       213       213        12        23
       214       214       107        50
       215       215        11        90
       216       216        22        17
       217       217        24        56
       218       218        19        75
       219       219        74       116
       220       220        20        45
       221       221        66        37
       222       222       101        79
       223       223        49        60
       224       224        59        70
       225       225         2         9
       226       226        83        11
       227       227        11        83
       228       228         4        95
       229       229        78        23
       230       230       115        25
       231       231        86        35
       232       232        59        68
       233       233        16        61
       234       234       103        43
       235       235        43       103
       236       236        23        14
       237       237        40         3
       238       238        42        36
       239       239        54       114
       240       240        34         7
       241       241        96        22
       242       242        37        38
       243       243        39       118
       244       244        76        24
       245       245        81        88
       246       246        30        77
       247       247        31        41
       248       248        27        25
       249       249       118        99
       250       250        24        20
       251       251        94        86
       252       252        76        20
       253       253        65        31
       254       254        67       104
       255       255        53        46
       256       256        75        47
       257       257        65        16
       258       258         9        22
       259       259        33        66
       260       260         3        10
       261       261        21       120
       262       262        61        32
       263       263        46        14
       264       264       111        68
       265       265       101        49
       266       266       104        52
       267       267        60        88
       268       268       106       110
       269       269        15        79
       270       270        51        55
       271       271        55        51
       272       272       105       118
       273       273       113         9
       274       274        53        14
       275       275       118        13
       276       276        57        11
       277       277        38       112
       278       278        68        70
       279       279         7        18
       280       280         8        26
       281       281       106        70
       282       282        53       112
       283       283       112        53
       284       284        37         8
       285       285       108        78
       286       286        96        69
       287       287        60        82
       288       288       119        95
       289       289        81        13
       290       290        42        84
       291       291        93        35
       292       292        35        93
       293       293         2        65
       294       294        82       107
       295       295        18        21
       296       296       108        23
       297       297        73         9
       298       298        44        10
       299       299        97        38
       300       300        89        85
       301       301        58        41
       302       302        51        97
       303       303       114        43